<?xml version="1.0"?>
<VTKFile type="UnstructuredGrid" version="0.1" byte_order="BigEndian">
<UnstructuredGrid GhostLevel="0">
<Piece NumberOfPoints="39478" NumberOfCells="18963" ><Points>
<DataArray type="Float32" NumberOfComponents="3" format="ascii">
0	5000	40	0	4950	40	50	5000	40	50	4950	40	0	5000	10	0	4950	10	50	5000	10	50	4950	10	100	5000	40	100	4950	40	100	5000	10	100	4950	10	150	5000	40	150	4950	40	150	5000	10	150	4950	10	200	5000	40	200	4950	40	200	5000	10	200	4950	10	250	5000	40	250	4950	40	250	5000	10	250	4950	10	300	5000	40	300	4950	40	300	5000	10	300	4950	10	350	5000	40	350	4950	40	350	5000	10	350	4950	10	400	5000	40	400	4950	40	400	5000	10	400	4950	10	450	5000	40	450	4950	40	450	5000	10	450	4950	10	500	5000	40	500	4950	40	500	5000	10	500	4950	10	550	5000	40	550	4950	40	550	5000	10	550	4950	10	600	5000	40	600	4950	40	600	5000	10	600	4950	10	650	5000	40	650	4950	40	650	5000	10	650	4950	10	700	5000	40	700	4950	40	700	5000	10	700	4950	10	750	5000	40	750	4950	40	750	5000	10	750	4950	10	800	5000	40	800	4950	40	800	5000	10	800	4950	10	850	5000	40	850	4950	40	850	5000	10	850	4950	10	900	5000	40	900	4950	40	900	5000	10	900	4950	10	950	5000	40	950	4950	40	950	5000	10	950	4950	10	1000	5000	40	1000	4950	40	1000	5000	10	1000	4950	10	1050	5000	40	1050	4950	40	1050	5000	10	1050	4950	10	1100	5000	40	1100	4950	40	1100	5000	10	1100	4950	10	1150	5000	40	1150	4950	40	1150	5000	10	1150	4950	10	1200	5000	40	1200	4950	40	1200	5000	10	1200	4950	10	1250	5000	40	1250	4950	40	1250	5000	10	1250	4950	10	1300	5000	40	1300	4950	40	1300	5000	10	1300	4950	10	1350	5000	40	1350	4950	40	1350	5000	10	1350	4950	10	1400	5000	40	1400	4950	40	1400	5000	10	1400	4950	10	1450	5000	40	1450	4950	40	1450	5000	10	1450	4950	10	1500	5000	40	1500	4950	40	1500	5000	10	1500	4950	10	1550	5000	40	1550	4950	40	1550	5000	10	1550	4950	10	1600	5000	40	1600	4950	40	1600	5000	10	1600	4950	10	1650	5000	40	1650	4950	40	1650	5000	10	1650	4950	10	1700	5000	40	1700	4950	40	1700	5000	10	1700	4950	10	1750	5000	40	1750	4950	40	1750	5000	10	1750	4950	10	2000	5000	40	2000	4950	40	2050	5000	40	2050	4950	40	2000	5000	10	2000	4950	10	2050	5000	10	2050	4950	10	2100	5000	40	2100	4950	40	2100	5000	10	2100	4950	10	2150	5000	40	2150	4950	40	2150	5000	10	2150	4950	10	2200	5000	40	2200	4950	40	2200	5000	10	2200	4950	10	2250	5000	40	2250	4950	40	2250	5000	10	2250	4950	10	2300	5000	40	2300	4950	40	2300	5000	10	2300	4950	10	2350	5000	40	2350	4950	40	2350	5000	10	2350	4950	10	2400	5000	40	2400	4950	40	2400	5000	10	2400	4950	10	2450	5000	40	2450	4950	40	2450	5000	10	2450	4950	10	2500	5000	40	2500	4950	40	2500	5000	10	2500	4950	10	2550	5000	40	2550	4950	40	2550	5000	10	2550	4950	10	2600	5000	40	2600	4950	40	2600	5000	10	2600	4950	10	2650	5000	40	2650	4950	40	2650	5000	10	2650	4950	10	2700	5000	40	2700	4950	40	2700	5000	10	2700	4950	10	2750	5000	40	2750	4950	40	2750	5000	10	2750	4950	10	2800	5000	40	2800	4950	40	2800	5000	10	2800	4950	10	2850	5000	40	2850	4950	40	2850	5000	10	2850	4950	10	2900	5000	40	2900	4950	40	2900	5000	10	2900	4950	10	2950	5000	40	2950	4950	40	2950	5000	10	2950	4950	10	3000	5000	40	3000	4950	40	3000	5000	10	3000	4950	10	3050	5000	40	3050	4950	40	3050	5000	10	3050	4950	10	3100	5000	40	3100	4950	40	3100	5000	10	3100	4950	10	3150	5000	40	3150	4950	40	3150	5000	10	3150	4950	10	3200	5000	40	3200	4950	40	3200	5000	10	3200	4950	10	3250	5000	40	3250	4950	40	3250	5000	10	3250	4950	10	3300	5000	40	3300	4950	40	3300	5000	10	3300	4950	10	3350	5000	40	3350	4950	40	3350	5000	10	3350	4950	10	3400	5000	40	3400	4950	40	3400	5000	10	3400	4950	10	3450	5000	40	3450	4950	40	3450	5000	10	3450	4950	10	3500	5000	40	3500	4950	40	3500	5000	10	3500	4950	10	3550	5000	40	3550	4950	40	3550	5000	10	3550	4950	10	3600	5000	40	3600	4950	40	3600	5000	10	3600	4950	10	3650	5000	40	3650	4950	40	3650	5000	10	3650	4950	10	3700	5000	40	3700	4950	40	3700	5000	10	3700	4950	10	3750	5000	40	3750	4950	40	3750	5000	10	3750	4950	10	0	4900	40	50	4900	40	0	4900	10	50	4900	10	100	4900	40	100	4900	10	150	4900	40	150	4900	10	200	4900	40	200	4900	10	250	4900	40	250	4900	10	300	4900	40	300	4900	10	350	4900	40	350	4900	10	400	4900	40	400	4900	10	450	4900	40	450	4900	10	500	4900	40	500	4900	10	550	4900	40	550	4900	10	600	4900	40	600	4900	10	650	4900	40	650	4900	10	700	4900	40	700	4900	10	750	4900	40	750	4900	10	800	4900	40	800	4900	10	850	4900	40	850	4900	10	900	4900	40	900	4900	10	950	4900	40	950	4900	10	1000	4900	40	1000	4900	10	1050	4900	40	1050	4900	10	1100	4900	40	1100	4900	10	1150	4900	40	1150	4900	10	1200	4900	40	1200	4900	10	1250	4900	40	1250	4900	10	1300	4900	40	1300	4900	10	1350	4900	40	1350	4900	10	1400	4900	40	1400	4900	10	1450	4900	40	1450	4900	10	1500	4900	40	1500	4900	10	1550	4900	40	1550	4900	10	1600	4900	40	1600	4900	10	1650	4900	40	1650	4900	10	1700	4900	40	1700	4900	10	1750	4900	40	1750	4900	10	2000	4900	40	2050	4900	40	2000	4900	10	2050	4900	10	2100	4900	40	2100	4900	10	2150	4900	40	2150	4900	10	2200	4900	40	2200	4900	10	2250	4900	40	2250	4900	10	2300	4900	40	2300	4900	10	2350	4900	40	2350	4900	10	2400	4900	40	2400	4900	10	2450	4900	40	2450	4900	10	2500	4900	40	2500	4900	10	2550	4900	40	2550	4900	10	2600	4900	40	2600	4900	10	2650	4900	40	2650	4900	10	2700	4900	40	2700	4900	10	2750	4900	40	2750	4900	10	2800	4900	40	2800	4900	10	2850	4900	40	2850	4900	10	2900	4900	40	2900	4900	10	2950	4900	40	2950	4900	10	3000	4900	40	3000	4900	10	3050	4900	40	3050	4900	10	3100	4900	40	3100	4900	10	3150	4900	40	3150	4900	10	3200	4900	40	3200	4900	10	3250	4900	40	3250	4900	10	3300	4900	40	3300	4900	10	3350	4900	40	3350	4900	10	3400	4900	40	3400	4900	10	3450	4900	40	3450	4900	10	3500	4900	40	3500	4900	10	3550	4900	40	3550	4900	10	3600	4900	40	3600	4900	10	3650	4900	40	3650	4900	10	3700	4900	40	3700	4900	10	3750	4900	40	3750	4900	10	0	4850	40	50	4850	40	0	4850	10	50	4850	10	100	4850	40	100	4850	10	150	4850	40	150	4850	10	200	4850	40	200	4850	10	250	4850	40	250	4850	10	300	4850	40	300	4850	10	350	4850	40	350	4850	10	400	4850	40	400	4850	10	450	4850	40	450	4850	10	500	4850	40	500	4850	10	550	4850	40	550	4850	10	600	4850	40	600	4850	10	650	4850	40	650	4850	10	700	4850	40	700	4850	10	750	4850	40	750	4850	10	800	4850	40	800	4850	10	850	4850	40	850	4850	10	900	4850	40	900	4850	10	950	4850	40	950	4850	10	1000	4850	40	1000	4850	10	1050	4850	40	1050	4850	10	1100	4850	40	1100	4850	10	1150	4850	40	1150	4850	10	1200	4850	40	1200	4850	10	1250	4850	40	1250	4850	10	1300	4850	40	1300	4850	10	1350	4850	40	1350	4850	10	1400	4850	40	1400	4850	10	1450	4850	40	1450	4850	10	1500	4850	40	1500	4850	10	1550	4850	40	1550	4850	10	1600	4850	40	1600	4850	10	1650	4850	40	1650	4850	10	1700	4850	40	1700	4850	10	1750	4850	40	1750	4850	10	2000	4850	40	2050	4850	40	2000	4850	10	2050	4850	10	2100	4850	40	2100	4850	10	2150	4850	40	2150	4850	10	2200	4850	40	2200	4850	10	2250	4850	40	2250	4850	10	2300	4850	40	2300	4850	10	2350	4850	40	2350	4850	10	2400	4850	40	2400	4850	10	2450	4850	40	2450	4850	10	2500	4850	40	2500	4850	10	2550	4850	40	2550	4850	10	2600	4850	40	2600	4850	10	2650	4850	40	2650	4850	10	2700	4850	40	2700	4850	10	2750	4850	40	2750	4850	10	2800	4850	40	2800	4850	10	2850	4850	40	2850	4850	10	2900	4850	40	2900	4850	10	2950	4850	40	2950	4850	10	3000	4850	40	3000	4850	10	3050	4850	40	3050	4850	10	3100	4850	40	3100	4850	10	3150	4850	40	3150	4850	10	3200	4850	40	3200	4850	10	3250	4850	40	3250	4850	10	3300	4850	40	3300	4850	10	3350	4850	40	3350	4850	10	3400	4850	40	3400	4850	10	3450	4850	40	3450	4850	10	3500	4850	40	3500	4850	10	3550	4850	40	3550	4850	10	3600	4850	40	3600	4850	10	3650	4850	40	3650	4850	10	3700	4850	40	3700	4850	10	3750	4850	40	3750	4850	10	0	4800	40	50	4800	40	0	4800	10	50	4800	10	100	4800	40	100	4800	10	150	4800	40	150	4800	10	200	4800	40	200	4800	10	250	4800	40	250	4800	10	300	4800	40	300	4800	10	350	4800	40	350	4800	10	400	4800	40	400	4800	10	450	4800	40	450	4800	10	500	4800	40	500	4800	10	550	4800	40	550	4800	10	600	4800	40	600	4800	10	650	4800	40	650	4800	10	700	4800	40	700	4800	10	750	4800	40	750	4800	10	800	4800	40	800	4800	10	850	4800	40	850	4800	10	900	4800	40	900	4800	10	950	4800	40	950	4800	10	1000	4800	40	1000	4800	10	1050	4800	40	1050	4800	10	1100	4800	40	1100	4800	10	1150	4800	40	1150	4800	10	1200	4800	40	1200	4800	10	1250	4800	40	1250	4800	10	1300	4800	40	1300	4800	10	1350	4800	40	1350	4800	10	1400	4800	40	1400	4800	10	1450	4800	40	1450	4800	10	1500	4800	40	1500	4800	10	1550	4800	40	1550	4800	10	1600	4800	40	1600	4800	10	1650	4800	40	1650	4800	10	1700	4800	40	1700	4800	10	1750	4800	40	1750	4800	10	2000	4800	40	2050	4800	40	2000	4800	10	2050	4800	10	2100	4800	40	2100	4800	10	2150	4800	40	2150	4800	10	2200	4800	40	2200	4800	10	2250	4800	40	2250	4800	10	2300	4800	40	2300	4800	10	2350	4800	40	2350	4800	10	2400	4800	40	2400	4800	10	2450	4800	40	2450	4800	10	2500	4800	40	2500	4800	10	2550	4800	40	2550	4800	10	2600	4800	40	2600	4800	10	2650	4800	40	2650	4800	10	2700	4800	40	2700	4800	10	2750	4800	40	2750	4800	10	2800	4800	40	2800	4800	10	2850	4800	40	2850	4800	10	2900	4800	40	2900	4800	10	2950	4800	40	2950	4800	10	3000	4800	40	3000	4800	10	3050	4800	40	3050	4800	10	3100	4800	40	3100	4800	10	3150	4800	40	3150	4800	10	3200	4800	40	3200	4800	10	3250	4800	40	3250	4800	10	3300	4800	40	3300	4800	10	3350	4800	40	3350	4800	10	3400	4800	40	3400	4800	10	3450	4800	40	3450	4800	10	3500	4800	40	3500	4800	10	3550	4800	40	3550	4800	10	3600	4800	40	3600	4800	10	3650	4800	40	3650	4800	10	3700	4800	40	3700	4800	10	3750	4800	40	3750	4800	10	0	4750	40	50	4750	40	0	4750	10	50	4750	10	100	4750	40	100	4750	10	150	4750	40	150	4750	10	200	4750	40	200	4750	10	250	4750	40	250	4750	10	300	4750	40	300	4750	10	350	4750	40	350	4750	10	400	4750	40	400	4750	10	450	4750	40	450	4750	10	500	4750	40	500	4750	10	550	4750	40	550	4750	10	600	4750	40	600	4750	10	650	4750	40	650	4750	10	700	4750	40	700	4750	10	750	4750	40	750	4750	10	800	4750	40	800	4750	10	850	4750	40	850	4750	10	900	4750	40	900	4750	10	950	4750	40	950	4750	10	1000	4750	40	1000	4750	10	1050	4750	40	1050	4750	10	1100	4750	40	1100	4750	10	1150	4750	40	1150	4750	10	1200	4750	40	1200	4750	10	1250	4750	40
[...]
<CellData Scalars="scalars">
<DataArray type="Int32" Name="nodeid" format="ascii">1	2	3	4	5	6	7	8	9	10	11	12	13	14	15	16	17	18	19	20	21	22	23	24	25	26	27	28	29	30	31	32	33	34	35	7501	7505	7506	7508	7507	7509	7510	7512	7511	7503	7517	7518	7520	7519	7521	7522	7524	7523	7529	7530	7532	7531	7525	7526	7528	7527	7537	7538	7540	7539	7541	7542	7544	7543	7549	7550	7552	7551	7545	7546	7548	7547	7557	7558	7560	7559	7561	7562	7564	7563	7569	7570	7572	7571	7565	7566	7568	7567	7577	7578	7580	7579	7574	7576	7581	7582	7584	7583	41	42	43	44	45	46	47	48	49	50	51	52	53	54	55	56	57	58	59	60	61	62	63	64	65	66	67	68	69	70	71	72	73	74	75	76	77	78	79	80	81	82	83	84	85	86	87	88	89	90	91	92	93	94	95	96	97	98	99	100	101	102	103	104	105	106	107	108	109	110	7585	7589	7590	7592	7591	7593	7594	7596	7595	7587	7601	7602	7604	7603	7605	7606	7608	7607	7613	7614	7616	7615	7609	7610	7612	7611	7621	7622	7624	7623	7625	7626	7628	7627	7633	7634	7636	7635	7629	7630	7632	7631	7641	7642	7644	7643	7645	7646	7648	7647	7653	7654	7656	7655	7649	7650	7652	7651	7661	7662	7664	7663	7658	7660	7665	7666	7668	7667	116	117	118	119	120	121	122	123	124	125	126	127	128	129	130	131	132	133	134	135	136	137	138	139	140	141	142	143	144	145	146	147	148	149	150	151	152	153	154	155	156	157	158	159	160	161	162	163	164	165	166	167	168	169	170	171	172	173	174	175	176	177	178	179	180	181	182	183	184	185	7669	7673	7674	7676	7675	7677	7678	7680	7679	7671	7685	7686	7688	7687	7689	7690	7692	7691	7697	7698	7700	7699	7693	7694	7696	7695	7705	7706	7708	7707	7709	7710	7712	7711	7717	7718	7720	7719	7713	7714	7716	7715	7725	7726	7728	7727	7729	7730	7732	7731	7737	7738	7740	7739	7733	7734	7736	7735	7745	7746	7748	7747	7742	7744	7749	7750	7752	7751	191	192	193	194	195	196	197	198	199	200	201	202	203	204	205	206	207	208	209	210	211	212	213	214	215	216	217	218	219	220	221	222	223	224	225	226	227	228	229	230	231	232	233	234	235	236	237	238	239	240	241	242	243	244	245	246	247	248	249	250	251	252	253	254	255	256	257	258	259	260	7753	7757	7758	7760	7759	7761	7762	7764	7763	7755	7769	7770	7772	7771	7773	7774	7776	7775	7781	7782	7784	7783	7777	7778	7780	7779	7789	7790	7792	7791	7793	7794	7796	7795	7801	7802	7804	7803	7797	7798	7800	7799	7809	7810	7812	7811	7813	7814	7816	7815	7821	7822	7824	7823	7817	7818	7820	7819	7829	7830	7832	7831	7826	7828	7833	7834	7836	7835	266	267	268	269	270	271	272	273	274	275	276	277	278	279	280	281	282	283	284	285	286	287	288	289	290	291	292	293	294	295	296	297	298	299	300	301	302	303	304	305	306	307	308	309	310	311	312	313	314	315	316	317	318	319	320	321	322	323	324	325	326	327	328	329	330	331	332	333	334	335	7837	7841	7842	7844	7843	7845	7846	7848	7847	7839	7853	7854	7856	7855	7857	7858	7860	7859	7865	7866	7868	7867	7861	7862	7864	7863	7873	7874	7876	7875	7877	7878	7880	7879	7885	7886	7888	7887	7881	7882	7884	7883	7893	7894	7896	7895	7897	7898	7900	7899	7905	7906	7908	7907	7901	7902	7904	7903	7913	7914	7916	7915	7910	7912	7917	7918	7920	7919	341	342	343	344	345	346	347	348	349	350	351	352	353	354	355	356	357	358	359	360	361	362	363	364	365	366	367	368	369	370	371	372	373	374	375	376	377	378	379	380	381	382	383	384	385	386	387	388	389	390	391	392	393	394	395	396	397	398	399	400	401	402	403	404	405	406	407	408	409	410	7921	7925	7926	7928	7927	7929	7930	7932	7931	7923	7937	7938	7940	7939	7941	7942	7944	7943	7949	7950	7952	7951	7945	7946	7948	7947	7957	7958	7960	7959	7961	7962	7964	7963	7969	7970	7972	7971	7965	7966	7968	7967	7977	7978	7980	7979	7981	7982	7984	7983	7989	7990	7992	7991	7985	7986	7988	7987	7997	7998	8000	7999	7994	7996	8001	8002	8004	8003	416	417	418	419	420	421	422	423	424	425	426	427	428	429	430	431	432	433	434	435	436	437	438	439	440	441	442	443	444	445	446	447	448	449	450	451	452	453	454	455	456	457	458	459	460	461	462	463	464	465	466	467	468	469	470	471	472	473	474	475	476	477	478	479	480	481	482	483	484	485	8005	8009	8010	8012	8011	8013	8014	8016	8015	8007	8021	8022	8024	8023	8025	8026	8028	8027	8033	8034	8036	8035	8029	8030	8032	8031	8041	8042	8044	8043	8045	8046	8048	8047	8053	8054	8056	8055	8049	8050	8052	8051	8061	8062	8064	8063	8065	8066	8068	8067	8073	8074	8076	8075	8069	8070	8072	8071	8081	8082	8084	8083	8078	8080	8085	8086	8088	8087	491	492	493	494	495	496	497	498	499	500	501	502	503	504	505	506	507	508	509	510	511	512	513	514	515	516	517	518	519	520	521	522	523	524	525	526	527	528	529	530	531	532	533	534	535	536	537	538	539	540	541	542	543	544	545	546	547	548	549	550	551	552	553	554	555	556	557	558	559	560	8089	8093	8094	8096	8095	8097	8098	8100	8099	8091	8105	8106	8108	8107	8109	8110	8112	8111	8117	8118	8120	8119	8113	8114	8116	8115	8125	8126	8128	8127	8129	8130	8132	8131	8137	8138	8140	8139	8133	8134	8136	8135	8145	8146	8148	8147	8149	8150	8152	8151	8157	8158	8160	8159	8153	8154	8156	8155	8165	8166	8168	8167	8162	8164	8169	8170	8172	8171	566	567	568	569	570	571	572	573	574	575	576	577	578	579	580	581	582	583	584	585	586	587	588	589	590	591	592	593	594	595	596	597	598	8173	8174	8176	8175	8177	8178	8180	8179	601	602	603	604	605	606	607	608	609	610	611	612	613	614	615	616	617	618	619	620	621	622	623	624	625	626	627	628	629	630	631	632	633	634	635	8181	8185	8186	8188	8187	8189	8190	8192	8191	8183	8197	8198	8200	8199	8201	8202	8204	8203	8209	8210	8212	8211	8205	8206	8208	8207	8217	8218	8220	8219	8221	8222	8224	8223	8229	8230	8232	8231	8225	8226	8228	8227	8237	8238	8240	8239	8241	8242	8244	8243	8249	8250	8252	8251	8245	8246	8248	8247	8257	8258	8260	8259	8254	8256	8261	8262	8264	8263	641	642	643	644	645	646	647	648	649	650	651	652	653	654	655	656	657	658	659	660	661	662	663	664	665	666	667	668	669	670	671	672	8265	8266	8268	8267	8269	8273	8274	8276	8275	8281	8282	8284	8283	8277	8278	8280	8279	8289	8290	8292	8291	8293	8294	8296	8295	8301	8302	8304	8303	8297	8298	8300	8299	676	677	678	679	680	681	682	683	684	685	686	687	688	689	690	691	692	693	694	695	696	697	698	699	700	701	702	703	704	705	706	707	708	709	710	8305	8309	8310	8312	8311	8313	8314	8316	8315	8307	8321	8322	8324	8323	8325	8326	8328	8327	8333	8334	8336	8335	8329	8330	8332	8331	8341	8342	8344	8343	8345	8346	8348	8347	8353	8354	8356	8355	8349	8350	8352	8351	8361	8362	8364	8363	8365	8366	8368	8367	8373	8374	8376	8375	8369	8370	8372	8371	8381	8382	8384	8383	8378	8380	8385	8386	8388	8387	716	717	718	719	720	721	722	723	724	725	726	727	728	729	730	731	732	733	734	735	736	737	738	739	740	741	742	743	744	745	746	8389	8390	8392	8391	8393	8397	8398	8400	8399	8405	8406	8408	8407	8401	8402	8404	8403	8413	8414	8416	8415	8417	8418	8420	8419	8425	8426	8428	8427	8421	8422	8424	8423	8433	8434	8436	8435	8437	8438	8440	8439	8445	8446	8448	8447	8441	8442	8444	8443	751	752	753	754	755	756	757	758	759	760	761	762	763	764	765	766	767	768	769	770	771	772	773	774	775	776	777	778	779	780	781	782	783	784	785	8449	8453	8454	8456	8455	8457	8458	8460	8459	8451	8465	8466	8468	8467	8469	8470	8472	8471	8477	8478	8480	8479	8473	8474	8476	8475	8485	8486	8488	8487	8489	8490	8492	8491	8497	8498	8500	8499	8493	8494	8496	8495	8505	8506	8508	8507	8509	8510	8512	8511	8517	8518	8520	8519	8513	8514	8516	8515	8525	8526	8528	8527	8522	8524	8529	8530	8532	8531	791	792	793	794	795	796	797	798	799	800	801	802	803	804	805	806	807	808	809	810	811	812	813	814	815	816	817	818	819	820	8533	8534	8536	8535	8537	8541	8542	8544	8543	8549	8550	8552	8551	8545	8546	8548	8547	8557	8558	8560	8559	8561	8562	8564	8563	8569	8570	8572	8571	8565	8566	8568	8567	8577	8578	8580	8579	8581	8582	8584	8583	8589	8590	8592	8591	8585	8586	8588	8587	8597	8598	8600	8599	8601	8602	8604	8603	8609	8610	8612	8611	8605	8606	8608	8607	826	827	828	829	830	831	832	833	834	835	836	837	838	839	840	841	842	843	844	845	846	847	848	849	850	851	852	853	854	855	856	857	858	859	860	8613	8617	8618	8620	8619	8621	8622	8624	8623	8615	8629	8630	8632	8631	8633	8634	8636	8635	8641	8642	8644	8643	8637	8638	8640	8639	8649	8650	8652	8651	8653	8654	8656	8655	8661	8662	8664	8663	8657	8658	8660	8659	8669	8670	8672	8671	8673	8674	8676	8675	8681	8682	8684	8683	8677	8678	8680	8679	8689	8690	8692	8691	8686	8688	8693	8694	8696	8695	866	867	868	869	870	871	872	873	874	875	876	877	878	879	880	881	882	883	884	885	886	887	888	889	890	891	892	893	894	8697	8698	8700	8699	8701	8705	8706	8708	8707	8713	8714	8716	8715	8709	8710	8712	8711	8721	8722	8724	8723	8725	8726	8728	8727	8733	8734	8736	8735	8729	8730	8732	8731	8741	8742	8744	8743	8745	8746	8748	8747	8753	8754	8756	8755	8749	8750	8752	8751	8761	8762	8764	8763	8765	8766	8768	8767	8773	8774	8776	8775	8769	8770	8772	8771	8781	8782	8784	8783	8785	8786	8788	8787	8793	8794	8796	8795	8789	8790	8792	8791	901	902	903	904	905	906	907	908	909	910	911	912	913	914	915	916	917	918	919	920	921	922	923	924	925	926	927	928	929	930	931	932	933	934	935	8797	8801	8802	8804	8803	8805	8806	8808	8807	8799	8813	8814	8816	8815	8817	8818	8820	8819	8825	8826	8828	8827	8821	8822	8824	8823	8833	8834	8836	8835	8837	8838	8840	8839	8845	8846	8848	8847	8841	8842	8844	8843	8853	8854	8856	8855	8857	8858	8860	8859	8865	8866	8868	8867	8861	8862	8864	8863	8873	8874	8876	8875	8870	8872	8877	8878	8880	8879	941	942	943	944	945	946	947	948	949	950	951	952	953	954	955	956	957	958	959	960	961	962	963	964	965	966	967	968	8881	8882	8884	8883	8885	8889	8890	8892	8891	8897	8898	8900	8899	8893	8894	8896	8895	8905	8906	8908	8907	8909	8910	8912	8911	8917	8918	8920	8919	8913	8914	8916	8915	8925	8926	8928	8927	8929	8930	8932	8931	8937	8938	8940	8939	8933	8934	8936	8935	8945	8946	8948	8947	8949	8950	8952	8951	8957	8958	8960	8959	8953	8954	8956	8955	8965	8966	8968	8967	8969	8970	8972	8971	8977	8978	8980	8979	8973	8974	8976	8975	8985	8986	8988	8987	8989	8990	8992	8991	8997	8998	9000	8999	8993	8994	8996	8995	976	977	978	979	980	981	982	983	984	985	986	987	988	989	990	991	992	993	994	995	996	997	998	999	1000	1001	1002	1003	1004	1005	1006	1007	1008	1009	1010	9001	9005	9006	9008	9007	9009	9010	9012	9011	9003	9017	9018	9020	9019	9021	9022	9024	9023	9029	9030	9032	9031	9025	9026	9028	9027	9037	9038	9040	9039	9041	9042	9044	9043	9049	9050	9052	9051	9045	9046	9048	9047	9057	9058	9060	9059	9061	9062	9064	9063	9069	9070	9072	9071	9065	9066	9068	9067	9077	9078	9080	9079	9074	9076	9081	9082	9084	9083	1016	1017	1018	1019	1020	1021	1022	1023	1024	1025	1026	1027	1028	1029	1030	1031	1032	1033	1034	1035	1036	1037	1038	1039	1040	1041	1042	1043	9085	9089	9090	9092	9091	9093	9094	9096	9095	9087	9101	9102	9104	9103	9105	9106	9108	9107	9113	9114	9116	9115	9109	9110	9112	9111	9121	9122	9124	9123	9125	9126	9128	9127	9133	9134	9136	9135	9129	9130	9132	9131	9141	9142	9144	9143	9145	9146	9148	9147	9153	9154	9156	9155	9149	9150	9152	9151	9161	9162	9164	9163	9165	9166	9168	9167	9173	9174	9176	9175	9169	9170	9172	9171	9181	9182	9184	9183	9185	9186	9188	9187	9193	9194	9196	9195	9189	9190	9192	9191	9201	9202	9204	9203	9205	9206	9208	9207	9200	9209	9210	9212	9211	1051	1052	1053	1054	1055	1056	1057	1058	1059	1060	1061	1062	1063	1064	1065	1066	1067	1068	1069	1070	1071	1072	1073	1074	1075	1076	1077	1078	1079	1080	1081	1082	1083	1084	1085	9213	9217	9218	9220	9219	9221	9222	9224	9223	9215	9229	9230	9232	9231	9233	9234	9236	9235	9241	9242	9244	9243	9237	9238	9240	9239	9249	9250	9252	9251	9253	9254	9256	9255	9261	9262	9264	9263	9257	9258	9260	9259	9269	9270	9272	9271	9273	9274	9276	9275	9281	9282	9284	9283	9277	9278	9280	9279	9289	9290	9292	9291	9286	9288	9293	9294	9296	9295	1091	1092	1093	1094	1095	1096	1097	1098	1099	1100	1101	1102	1103	1104	1105	1106	1107	1108	1109	1110	1111	1112	1113	1114	1115	1116	1117	9297	9298	9301	9302	9304	9303	9299	9309	9310	9312	9311	9313	9314	9316	9315	9321	9322	9324	9323	9317	9318	9320	9319	9329	9330	9332	9331	9333	9334	9336	9335	9341	9342	9344	9343	9337	9338	9340	9339	9349	9350	9352	9351	9353	9354	9356	9355	9361	9362	9364	9363	9357	9358	9360	9359	9369	9370	9372	9371	9373	9374	9376	9375	9381	9382	9384	9383	9377	9378	9380	9379	9389	9390	9392	9391	9393	9394	9396	9395	9401	9402	9404	9403	9397	9398	9400	9399	9409	9410	9412	9411	9413	9414	9416	9415	9421	9422	9424	9423	9417	9418	9420	9419	9425	9426	9428	9427	1126	1127	1128	1129	1130	1131	1132	1133	1134	1135	1136	1137	1138	1139	1140	1141	1142	1143	1144	1145	1146	1147	1148	1149	1150	1151	1152	1153	1154	1155	1156	1157	1158	1159	1160	9429	9433	9434	9436	9435	9437	9438	9440	9439	9431	9445	9446	9448	9447	9449	9450	9452	9451	9457	9458	9460	9459	9453	9454	9456	9455	9465	9466	9468	9467	9469	9470	9472	9471	9477	9478	9480	9479	9473	9474	9476	9475	9485	9486	9488	9487	9489	9490	9492	9491	9497	9498	9500	9499	9493	9494	9496	9495	9505	9506	9508	9507	9502	9504	9509	9510	9512	9511	1166	1167	1168	1169	1170	1171	1172	1173	1174	1175	1176	1177	1178	1179	1180	1181	1182	1183	1184	1185	1186	1187	1188	1189	1190	1191	9513	9514	9517	9518	9520	9519	9515	9525	9526	9528	9527	9529	9530	9532	9531	9537	9538	9540	9539	9533	9534	9536	9535	9545	9546	9548	9547	9549	9550	9552	9551	9557	9558	9560	9559	9553	9554	9556	9555	9565	9566	9568	9567	9569	9570	9572	9571	9577	9578	9580	9579	9573	9574	9576	9575	9585	9586	9588	9587	9589	9590	9592	9591	9597	9598	9600	9599	9593	9594	9596	9595	9605	9606	9608	9607	9609	9610	9612	9611	9617	9618	9620	9619	9613	9614	9616	9615	9625	9626	9628	9627	9629	9630	9632	9631	9637	9638	9640	9639	9633	9634	9636	9635	9645	9646	9648	9647	9642	9644	9643	1200	1201	1202	1203	1204	1205	1206	1207	1208	1209	1210	1211	1212	1213	1214	1215	1216	1217	1218	1219	1220	1221	1222	1223	1224	1225	1226	1227	1228	1229	1230	1231	1232	1233	1234	1235	9649	9653	9654	9656	9655	9657	9658	9660	9659	9651	9665	9666	9668	9667	9669	9670	9672	9671	9677	9678	9680	9679	9673	9674	9676	9675	9685	9686	9688	9687	9689	9690	9692	9691	9697	9698	9700	9699	9693	9694	9696	9695	9705	9706	9708	9707	9709	9710	9712	9711	9717	9718	9720	9719	9713	9714	9716	9715	9725	9726	9728	9727	9722	9724	9729	9730	9732	9731	9733	9734	9741	9742	9744	9743	9737	9738	9740	9739	9745	9746	9753	9754	9756	9755	9749	9750	9752	9751	9757	9758	9765	9766	9768	9767	9761	9762	9764	9763	9769	9770	9772	9771	1245	1246	1247	1248	1249	1250	1251	1252	1253	1254	1255	1256	1257	1258	1259	1260	1261	1262	1263	1264	1265	9773	9774	9777	9778	9780	9779	9775	9785	9786	9788	9787	9789	9790	9792	9791	9797	9798	9800	9799	9793	9794	9796	9795	9805	9806	9808	9807	9809	9810	9812	9811	9817	9818	9820	9819	9813	9814	9816	9815	9825	9826	9828	9827	9829	9830	9832	9831	9837	9838	9840	9839	9833	9834	9836	9835	9845	9846	9848	9847	9849	9850	9852	9851	9857	9858	9860	9859	9853	9854	9856	9855	9865	9866	9868	9867	9869	9870	9872	9871	9877	9878	9880	9879	9873	9874	9876	9875	9885	9886	9888	9887	9889	9890	9892	9891	9897	9898	9900	9899	9893	9894	9896	9895	9905	9906	9908	9907	9902	9904	9903	1274	1275	1276	1277	1278	1279	1280	1281	1282	1283	1284	1285	1286	1287	1288	1289	1290	1291	1292	1293	1294	1295	1296	1297	1298	1299	1300	1301	1302	1303	1304	1305	1306	1307	1308	1309	1310	9909	9913	9914	9916	9915	9917	9918	9920	9919	9911	9925	9926	9928	9927	9929	9930	9932	9931	9937	9938	9940	9939	9933	9934	9936	9935	9945	9946	9948	9947	9949	9950	9952	9951	9957	9958	9960	9959	9953	9954	9956	9955	9965	9966	9968	9967	9969	9970	9972	9971	9977	9978	9980	9979	9973	9974	9976	9975	9985	9986	9988	9987	9989	9990	9992	9991	9997	9998	10000	9999	9993	9994	9996	9995	10005	10006	10008	10007	10009	10010	10012	10011	10017	10018	10020	10019	10013	10014	10016	10015	10025	10026	10028	10027	10029	10030	10032	10031	10037	10038	10040	10039	10033	10034	10036	10035	10045	10046	10048	10047	10049	10050	10052	10051	10057	10058	10060	10059	10053	10054	10056	10055	10065	10066	10068	10067	10062	10064	10069	10070	10072	10071	1320	1321	1322	1323	1324	1325	1326	1327	1328	1329	1330	1331	1332	1333	1334	1335	1336	1337	1338	1339	10073	10074	10077	10078	10080	10079	10075	10085	10086	10088	10087	10089	10090	10092	10091	10097	10098	10100	10099	10093	10094	10096	10095	10105	10106	10108	10107	10109	10110	10112	10111	10117	10118	10120	10119	10113	10114	10116	10115	10125	10126	10128	10127	10129	10130	10132	10131	10137	10138	10140	10139	10133	10134	10136	10135	10145	10146	10148	10147	10149	10150	10152	10151	10157	10158	10160	10159	10153	10154	10156	10155	10165	10166	10168	10167	10169	10170	10172	10171	10177	10178	10180	10179	10173	10174	10176	10175	10185	10186	10188	10187	10189	10190	10192	10191	10197	10198	10200	10199	10193	10194	10196	10195	10205	10206	10208	10207	10202	10204	10203	1348	1349	1350	1351	1352	1353	1354	1355	1356	1357	1358	1359	1360	1361	1362	1363	1364	1365	1366	1367	1368	1369	1370	1371	1372	1373	1374	1375	1376	1377	1378	1379	1380	1381	1382	1383	1384	1385	10209	10213	10214	10216	10215	10217	10218	10220	10219	10211	10225	10226	10228	10227	10229	10230	10232	10231	10237	10238	10240	10239	10233	10234	10236	10235	10245	10246	10248	10247	10249	10250	10252	10251	10257	10258	10260	10259	10253	10254	10256	10255	10265	10266	10268	10267	10269	10270	10272	10271	10277	10278	10280	10279	10273	10274	10276	10275	10285	10286	10288	10287	10289	10290	10292	10291	10297	10298	10300	10299	10293	10294	10296	10295	10305	10306	10308	10307	10309	10310	10312	10311	10317	10318	10320	10319	10313	10314	10316	10315	10325	10326	10328	10327	10329	10330	10332	10331	10337	10338	10340	10339	10333	10334	10336	10335	10345	10346	10348	10347	10349	10350	10352	10351	10357	10358	10360	10359	10353	10354	10356	10355	10365	10366	10368	10367	10362	10364	10369	10370	10372	10371	1395	1396	1397	1398	1399	1400	1401	1402	1403	1404	1405	1406	1407	1408	1409	1410	1411	1412	1413	10373	10374	10377	10378	10380	10379	10375	10385	10386	10388	10387	10389	10390	10392	10391	10397	10398	10400	10399	10393	10394	10396	10395	10405	10406	10408	10407	10409	10410	10412	10411	10417	10418	10420	10419	10413	10414	10416	10415	10425	10426	10428	10427	10429	10430	10432	10431	10437	10438	10440	10439	10433	10434	10436	10435	10445	10446	10448	10447	10449	10450	10452	10451	10457	10458	10460	10459	10453	10454	10456	10455	10465	10466	10468	10467	10469	10470	10472	10471	10477	10478	10480	10479	10473	10474	10476	10475	10485	10486	10488	10487	10489	10490	10492	10491	10497	10498	10500	10499	10493	10494	10496	10495	10505	10506	10508	10507	10502	10504	10503	1422	1423	1424	1425	1426	1427	1428	1429	1430	1431	1432	1433	1434	1435	1436	1437	1438	1439	1440	1441	1442	1443	1444	1445	1446	1447	1448	1449	1450	1451	1452	1453	1454	1455	1456	1457	1458	1459	1460	10509	10513	10514	10516	10515	10517	10518	10520	10519	10511	10525	10526	10528	10527	10529	10530	10532	10531	10537	10538	10540	10539	10533	10534	10536	10535	10545	10546	10548	10547	10549	10550	10552	10551	10557	10558	10560	10559	10553	10554	10556	10555	10565	10566	10568	10567	10569	10570	10572	10571	10577	10578	10580	10579	10573	10574	10576	10575	10585	10586	10588	10587	10589	10590	10592	10591	10597	10598	10600	10599	10593	10594	10596	10595	10605	10606	10608	10607	10609	10610	10612	10611	10617	10618	10620	10619	10613	10614	10616	10615	10625	10626	10628	10627	10629	10630	10632	10631	10637	10638	10640	10639	10633	10634	10636	10635	10645	10646	10648	10647	10649	10650	10652	10651	10657	10658	10660	10659	10653	10654	10656	10655	10665	10666	10668	10667	10662	10664	10669	10670	10672	10671	1470	1471	1472	1473	1474	1475	1476	1477	1478	1479	1480	1481	1482	1483	1484	1485	1486	1487	10673	10674	10677	10678	10680	10679	10675	10685	10686	10688	10687	10689	10690	10692	10691	10697	10698	10700	10699	10693	10694	10696	10695	10705	10706	10708	10707	10709	10710	10712	10711	10717	10718	10720	10719	10713	10714	10716	10715	10725	10726	10728	10727	10729	10730	10732	10731	10737	10738	10740	10739	10733	10734	10736	10735	10745	10746	10748	10747	10749	10750	10752	10751	10757	10758	10760	10759	10753	10754	10756	10755	10765	10766	10768	10767	10769	10770	10772	10771	10777	10778	10780	10779	10773	10774	10776	10775	10785	10786	10788	10787	10789	10790	10792	10791	10797	10798	10800	10799	10793	10794	10796	10795	10805	10806	10808	10807	10802	10804	10803	1496	1497	1498	1499	1500	1501	1502	1503	1504	1505	1506	1507	1508	1509	1510	1511	1512	1513	1514	1515	1516	1517	1518	1519	1520	1521	1522	1523	1524	1525	1526	1527	1528	1529	1530	1531	1532	1533	1534	1535	10809	10813	10814	10816	10815	10817	10818	10820	10819	10811	10825	10826	10828	10827	10829	10830	10832	10831	10837	10838	10840	10839	10833	10834	10836	10835	10845	10846	10848	10847	10849	10850	108