<?xml version="1.0"?>
<VTKFile type="UnstructuredGrid" version="0.1" byte_order="BigEndian">
<UnstructuredGrid GhostLevel="0">
<Piece NumberOfPoints="27182" NumberOfCells="12717" ><Points>
<DataArray type="Float32" NumberOfComponents="3" format="ascii">
0	5000	40	0	4950	40	50	5000	40	50	4950	40	0	5000	10	0	4950	10	50	5000	10	50	4950	10	100	5000	40	100	4950	40	100	5000	10	100	4950	10	150	5000	40	150	4950	40	150	5000	10	150	4950	10	200	5000	40	200	4950	40	200	5000	10	200	4950	10	250	5000	40	250	4950	40	250	5000	10	250	4950	10	300	5000	40	300	4950	40	300	5000	10	300	4950	10	350	5000	40	350	4950	40	350	5000	10	350	4950	10	400	5000	40	400	4950	40	400	5000	10	400	4950	10	450	5000	40	450	4950	40	450	5000	10	450	4950	10	500	5000	40	500	4950	40	500	5000	10	500	4950	10	550	5000	40	550	4950	40	550	5000	10	550	4950	10	600	5000	40	600	4950	40	600	5000	10	600	4950	10	650	5000	40	650	4950	40	650	5000	10	650	4950	10	700	5000	40	700	4950	40	700	5000	10	700	4950	10	750	5000	40	750	4950	40	750	5000	10	750	4950	10	800	5000	40	800	4950	40	800	5000	10	800	4950	10	850	5000	40	850	4950	40	850	5000	10	850	4950	10	900	5000	40	900	4950	40	900	5000	10	900	4950	10	950	5000	40	950	4950	40	950	5000	10	950	4950	10	1000	5000	40	1000	4950	40	1000	5000	10	1000	4950	10	1050	5000	40	1050	4950	40	1050	5000	10	1050	4950	10	1100	5000	40	1100	4950	40	1100	5000	10	1100	4950	10	1150	5000	40	1150	4950	40	1150	5000	10	1150	4950	10	1200	5000	40	1200	4950	40	1200	5000	10	1200	4950	10	1250	5000	40	1250	4950	40	1250	5000	10	1250	4950	10	1300	5000	40	1300	4950	40	1300	5000	10	1300	4950	10	1350	5000	40	1350	4950	40	1350	5000	10	1350	4950	10	1400	5000	40	1400	4950	40	1400	5000	10	1400	4950	10	1450	5000	40	1450	4950	40	1450	5000	10	1450	4950	10	1500	5000	40	1500	4950	40	1500	5000	10	1500	4950	10	1550	5000	40	1550	4950	40	1550	5000	10	1550	4950	10	1600	5000	40	1600	4950	40	1600	5000	10	1600	4950	10	1650	5000	40	1650	4950	40	1650	5000	10	1650	4950	10	1700	5000	40	1700	4950	40	1700	5000	10	1700	4950	10	1750	5000	40	1750	4950	40	1750	5000	10	1750	4950	10	1800	5000	40	1800	4950	40	1800	5000	10	1800	4950	10	1950	5000	40	1950	4950	40	2000	5000	40	2000	4950	40	1950	5000	10	1950	4950	10	2000	5000	10	2000	4950	10	2050	5000	40	2050	4950	40	2050	5000	10	2050	4950	10	2100	5000	40	2100	4950	40	2100	5000	10	2100	4950	10	2150	5000	40	2150	4950	40	2150	5000	10	2150	4950	10	2200	5000	40	2200	4950	40	2200	5000	10	2200	4950	10	2250	5000	40	2250	4950	40	2250	5000	10	2250	4950	10	2300	5000	40	2300	4950	40	2300	5000	10	2300	4950	10	2350	5000	40	2350	4950	40	2350	5000	10	2350	4950	10	2400	5000	40	2400	4950	40	2400	5000	10	2400	4950	10	2450	5000	40	2450	4950	40	2450	5000	10	2450	4950	10	2500	5000	40	2500	4950	40	2500	5000	10	2500	4950	10	2550	5000	40	2550	4950	40	2550	5000	10	2550	4950	10	2600	5000	40	2600	4950	40	2600	5000	10	2600	4950	10	2650	5000	40	2650	4950	40	2650	5000	10	2650	4950	10	2700	5000	40	2700	4950	40	2700	5000	10	2700	4950	10	2750	5000	40	2750	4950	40	2750	5000	10	2750	4950	10	2800	5000	40	2800	4950	40	2800	5000	10	2800	4950	10	2850	5000	40	2850	4950	40	2850	5000	10	2850	4950	10	2900	5000	40	2900	4950	40	2900	5000	10	2900	4950	10	2950	5000	40	2950	4950	40	2950	5000	10	2950	4950	10	3000	5000	40	3000	4950	40	3000	5000	10	3000	4950	10	3050	5000	40	3050	4950	40	3050	5000	10	3050	4950	10	3100	5000	40	3100	4950	40	3100	5000	10	3100	4950	10	3150	5000	40	3150	4950	40	3150	5000	10	3150	4950	10	3200	5000	40	3200	4950	40	3200	5000	10	3200	4950	10	3250	5000	40	3250	4950	40	3250	5000	10	3250	4950	10	3300	5000	40	3300	4950	40	3300	5000	10	3300	4950	10	3350	5000	40	3350	4950	40	3350	5000	10	3350	4950	10	3400	5000	40	3400	4950	40	3400	5000	10	3400	4950	10	3450	5000	40	3450	4950	40	3450	5000	10	3450	4950	10	3500	5000	40	3500	4950	40	3500	5000	10	3500	4950	10	3550	5000	40	3550	4950	40	3550	5000	10	3550	4950	10	3600	5000	40	3600	4950	40	3600	5000	10	3600	4950	10	3650	5000	40	3650	4950	40	3650	5000	10	3650	4950	10	3700	5000	40	3700	4950	40	3700	5000	10	3700	4950	10	3750	5000	40	3750	4950	40	3750	5000	10	3750	4950	10	0	4900	40	50	4900	40	0	4900	10	50	4900	10	100	4900	40	100	4900	10	150	4900	40	150	4900	10	200	4900	40	200	4900	10	250	4900	40	250	4900	10	300	4900	40	300	4900	10	350	4900	40	350	4900	10	400	4900	40	400	4900	10	450	4900	40	450	4900	10	500	4900	40	500	4900	10	550	4900	40	550	4900	10	600	4900	40	600	4900	10	650	4900	40	650	4900	10	700	4900	40	700	4900	10	750	4900	40	750	4900	10	800	4900	40	800	4900	10	850	4900	40	850	4900	10	900	4900	40	900	4900	10	950	4900	40	950	4900	10	1000	4900	40	1000	4900	10	1050	4900	40	1050	4900	10	1100	4900	40	1100	4900	10	1150	4900	40	1150	4900	10	1200	4900	40	1200	4900	10	1250	4900	40	1250	4900	10	1300	4900	40	1300	4900	10	1350	4900	40	1350	4900	10	1400	4900	40	1400	4900	10	1450	4900	40	1450	4900	10	1500	4900	40	1500	4900	10	1550	4900	40	1550	4900	10	1600	4900	40	1600	4900	10	1650	4900	40	1650	4900	10	1700	4900	40	1700	4900	10	1750	4900	40	1750	4900	10	1800	4900	40	1800	4900	10	1950	4900	40	2000	4900	40	1950	4900	10	2000	4900	10	2050	4900	40	2050	4900	10	2100	4900	40	2100	4900	10	2150	4900	40	2150	4900	10	2200	4900	40	2200	4900	10	2250	4900	40	2250	4900	10	2300	4900	40	2300	4900	10	2350	4900	40	2350	4900	10	2400	4900	40	2400	4900	10	2450	4900	40	2450	4900	10	2500	4900	40	2500	4900	10	2550	4900	40	2550	4900	10	2600	4900	40	2600	4900	10	2650	4900	40	2650	4900	10	2700	4900	40	2700	4900	10	2750	4900	40	2750	4900	10	2800	4900	40	2800	4900	10	2850	4900	40	2850	4900	10	2900	4900	40	2900	4900	10	2950	4900	40	2950	4900	10	3000	4900	40	3000	4900	10	3050	4900	40	3050	4900	10	3100	4900	40	3100	4900	10	3150	4900	40	3150	4900	10	3200	4900	40	3200	4900	10	3250	4900	40	3250	4900	10	3300	4900	40	3300	4900	10	3350	4900	40	3350	4900	10	3400	4900	40	3400	4900	10	3450	4900	40	3450	4900	10	3500	4900	40	3500	4900	10	3550	4900	40	3550	4900	10	3600	4900	40	3600	4900	10	3650	4900	40	3650	4900	10	3700	4900	40	3700	4900	10	3750	4900	40	3750	4900	10	0	4850	40	50	4850	40	0	4850	10	50	4850	10	100	4850	40	100	4850	10	150	4850	40	150	4850	10	200	4850	40	200	4850	10	250	4850	40	250	4850	10	300	4850	40	300	4850	10	350	4850	40	350	4850	10	400	4850	40	400	4850	10	450	4850	40	450	4850	10	500	4850	40	500	4850	10	550	4850	40	550	4850	10	600	4850	40	600	4850	10	650	4850	40	650	4850	10	700	4850	40	700	4850	10	750	4850	40	750	4850	10	800	4850	40	800	4850	10	850	4850	40	850	4850	10	900	4850	40	900	4850	10	950	4850	40	950	4850	10	1000	4850	40	1000	4850	10	1050	4850	40	1050	4850	10	1100	4850	40	1100	4850	10	1150	4850	40	1150	4850	10	1200	4850	40	1200	4850	10	1250	4850	40	1250	4850	10	1300	4850	40	1300	4850	10	1350	4850	40	1350	4850	10	1400	4850	40	1400	4850	10	1450	4850	40	1450	4850	10	1500	4850	40	1500	4850	10	1550	4850	40	1550	4850	10	1600	4850	40	1600	4850	10	1650	4850	40	1650	4850	10	1700	4850	40	1700	4850	10	1750	4850	40	1750	4850	10	1800	4850	40	1800	4850	10	1950	4850	40	2000	4850	40	1950	4850	10	2000	4850	10	2050	4850	40	2050	4850	10	2100	4850	40	2100	4850	10	2150	4850	40	2150	4850	10	2200	4850	40	2200	4850	10	2250	4850	40	2250	4850	10	2300	4850	40	2300	4850	10	2350	4850	40	2350	4850	10	2400	4850	40	2400	4850	10	2450	4850	40	2450	4850	10	2500	4850	40	2500	4850	10	2550	4850	40	2550	4850	10	2600	4850	40	2600	4850	10	2650	4850	40	2650	4850	10	2700	4850	40	2700	4850	10	2750	4850	40	2750	4850	10	2800	4850	40	2800	4850	10	2850	4850	40	2850	4850	10	2900	4850	40	2900	4850	10	2950	4850	40	2950	4850	10	3000	4850	40	3000	4850	10	3050	4850	40	3050	4850	10	3100	4850	40	3100	4850	10	3150	4850	40	3150	4850	10	3200	4850	40	3200	4850	10	3250	4850	40	3250	4850	10	3300	4850	40	3300	4850	10	3350	4850	40	3350	4850	10	3400	4850	40	3400	4850	10	3450	4850	40	3450	4850	10	3500	4850	40	3500	4850	10	3550	4850	40	3550	4850	10	3600	4850	40	3600	4850	10	3650	4850	40	3650	4850	10	3700	4850	40	3700	4850	10	3750	4850	40	3750	4850	10	0	4800	40	50	4800	40	0	4800	10	50	4800	10	100	4800	40	100	4800	10	150	4800	40	150	4800	10	200	4800	40	200	4800	10	250	4800	40	250	4800	10	300	4800	40	300	4800	10	350	4800	40	350	4800	10	400	4800	40	400	4800	10	450	4800	40	450	4800	10	500	4800	40	500	4800	10	550	4800	40	550	4800	10	600	4800	40	600	4800	10	650	4800	40	650	4800	10	700	4800	40	700	4800	10	750	4800	40	750	4800	10	800	4800	40	800	4800	10	850	4800	40	850	4800	10	900	4800	40	900	4800	10	950	4800	40	950	4800	10	1000	4800	40	1000	4800	10	1050	4800	40	1050	4800	10	1100	4800	40	1100	4800	10	1150	4800	40	1150	4800	10	1200	4800	40	1200	4800	10	1250	4800	40	1250	4800	10	1300	4800	40	1300	4800	10	1350	4800	40	1350	4800	10	1400	4800	40	1400	4800	10	1450	4800	40	1450	4800	10	1500	4800	40	1500	4800	10	1550	4800	40	1550	4800	10	1600	4800	40	1600	4800	10	1650	4800	40	1650	4800	10	1700	4800	40	1700	4800	10	1750	4800	40	1750	4800	10	1800	4800	40	1800	4800	10	1950	4800	40	2000	4800	40	1950	4800	10	2000	4800	10	2050	4800	40	2050	4800	10	2100	4800	40	2100	4800	10	2150	4800	40	2150	4800	10	2200	4800	40	2200	4800	10	2250	4800	40	2250	4800	10	2300	4800	40	2300	4800	10	2350	4800	40	2350	4800	10	2400	4800	40	2400	4800	10	2450	4800	40	2450	4800	10	2500	4800	40	2500	4800	10	2550	4800	40	2550	4800	10	2600	4800	40	2600	4800	10	2650	4800	40	2650	4800	10	2700	4800	40	2700	4800	10	2750	4800	40	2750	4800	10	2800	4800	40	2800	4800	10	2850	4800	40	2850	4800	10	2900	4800	40	2900	4800	10	2950	4800	40	2950	4800	10	3000	4800	40	3000	4800	10	3050	4800	40	3050	4800	10	3100	4800	40	3100	4800	10	3150	4800	40	3150	4800	10	3200	4800	40	3200	4800	10	3250	4800	40	3250	4800	10	3300	4800	40	3300	4800	10	3350	4800	40	3350	4800	10	3400	4800	40	3400	4800	10	3450	4800	40	3450	4800	10	3500	4800	40	3500	4800	10	3550	4800	40	3550	4800	10	3600	4800	40	3600	4800	10	3650	4800	40	3650	4800	10	3700	4800	40	3700	4800	10	3750	4800	40	3750	4800	10	0	4750	40	50	4750	40	0	4750	10	50	4750	10	100	4750	40	100	4750	10	150	4750	40	150	4750	10	200	4750	40	200	4750	10	250	4750	40	250	4750	10	300	4750	40	300	4750	10	350	4750	40	350	4750	10	400	4750	40	400	4750	10	450	4750	40	450	4750	10	500	4750	40	500	4750	10	550	4750	40	550	4750	10	600	4750	40	600	4750	10	650	4750	40	650	4750	10	700	4750	40	700	4750	10	75
[...]
<CellData Scalars="scalars">
<DataArray type="Int32" Name="nodeid" format="ascii">1	2	3	4	5	6	7	8	9	10	11	12	13	14	15	16	17	18	19	20	21	22	23	24	25	26	27	28	29	30	31	32	33	34	35	36	7501	7502	7504	7503	7509	7510	7512	7511	7513	7514	7516	7515	7521	7522	7524	7523	7517	7518	7520	7519	7525	7526	7528	7527	40	41	42	43	44	45	46	47	48	49	50	51	52	53	54	55	56	57	58	59	60	61	62	63	64	65	66	67	68	69	70	71	72	73	74	75	76	77	78	79	80	81	82	83	84	85	86	87	88	89	90	91	92	93	94	95	96	97	98	99	100	101	102	103	104	105	106	107	108	109	110	111	7529	7530	7532	7531	7537	7538	7540	7539	7541	7542	7544	7543	7549	7550	7552	7551	7545	7546	7548	7547	7553	7554	7556	7555	115	116	117	118	119	120	121	122	123	124	125	126	127	128	129	130	131	132	133	134	135	136	137	138	139	140	141	142	143	144	145	146	147	148	149	150	151	152	153	154	155	156	157	158	159	160	161	162	163	164	165	166	167	168	169	170	171	172	173	174	175	176	177	178	179	180	181	182	183	184	185	186	7557	7558	7560	7559	7565	7566	7568	7567	7569	7570	7572	7571	7577	7578	7580	7579	7573	7574	7576	7575	7581	7582	7584	7583	190	191	192	193	194	195	196	197	198	199	200	201	202	203	204	205	206	207	208	209	210	211	212	213	214	215	216	217	218	219	220	221	222	223	224	225	226	227	228	229	230	231	232	233	234	235	236	237	238	239	240	241	242	243	244	245	246	247	248	249	250	251	252	253	254	255	256	257	258	259	260	261	7585	7586	7588	7587	7593	7594	7596	7595	7597	7598	7600	7599	7605	7606	7608	7607	7601	7602	7604	7603	7609	7610	7612	7611	265	266	267	268	269	270	271	272	273	274	275	276	277	278	279	280	281	282	283	284	285	286	287	288	289	290	291	292	293	294	295	296	297	298	299	300	301	302	303	304	305	306	307	308	309	310	311	312	313	314	315	316	317	318	319	320	321	322	323	324	325	326	327	328	329	330	331	332	333	334	335	336	7613	7614	7616	7615	7621	7622	7624	7623	7625	7626	7628	7627	7633	7634	7636	7635	7629	7630	7632	7631	7637	7638	7640	7639	340	341	342	343	344	345	346	347	348	349	350	351	352	353	354	355	356	357	358	359	360	361	362	363	364	365	366	367	368	369	370	371	372	373	374	375	376	377	378	379	380	381	382	383	384	385	386	387	388	389	390	391	392	393	394	395	396	397	398	399	400	401	402	403	404	405	406	407	408	409	410	411	7641	7642	7644	7643	7649	7650	7652	7651	7653	7654	7656	7655	7661	7662	7664	7663	7657	7658	7660	7659	7665	7666	7668	7667	415	416	417	418	419	420	421	422	423	424	425	426	427	428	429	430	431	432	433	434	435	436	437	438	439	440	441	442	443	444	445	446	447	448	449	450	451	452	453	454	455	456	457	458	459	460	461	462	463	464	465	466	467	468	469	470	471	472	473	474	475	476	477	478	479	480	481	482	483	484	485	486	7669	7670	7672	7671	7677	7678	7680	7679	7681	7682	7684	7683	7689	7690	7692	7691	7685	7686	7688	7687	7693	7694	7696	7695	490	491	492	493	494	495	496	497	498	499	500	501	502	503	504	505	506	507	508	509	510	511	512	513	514	515	516	517	518	519	520	521	522	523	524	525	526	527	528	529	530	531	532	533	534	535	536	537	538	539	540	541	542	543	544	545	546	547	548	549	550	551	552	553	554	555	556	557	558	559	560	561	7697	7698	7700	7699	7705	7706	7708	7707	7709	7710	7712	7711	7717	7718	7720	7719	7713	7714	7716	7715	7721	7722	7724	7723	565	566	567	568	569	570	571	572	573	574	575	576	577	578	579	580	581	582	583	584	585	586	587	588	589	590	591	592	593	594	595	596	597	598	599	600	601	602	603	604	605	606	607	608	609	610	611	612	613	614	615	616	617	618	619	620	621	622	623	624	625	626	627	628	629	630	631	632	633	634	635	636	7725	7726	7728	7727	7733	7734	7736	7735	7737	7738	7740	7739	7745	7746	7748	7747	7741	7742	7744	7743	7749	7750	7752	7751	640	641	642	643	644	645	646	647	648	649	650	651	652	653	654	655	656	657	658	659	660	661	662	663	664	665	666	667	668	669	670	671	672	673	674	675	676	677	678	679	680	681	682	683	684	685	686	687	688	689	690	691	692	693	694	695	696	697	698	699	700	701	702	703	704	705	706	707	708	709	710	711	7753	7754	7756	7755	7761	7762	7764	7763	7765	7766	7768	7767	7773	7774	7776	7775	7769	7770	7772	7771	7777	7778	7780	7779	715	716	717	718	719	720	721	722	723	724	725	726	727	728	729	730	731	732	733	734	735	736	737	738	739	740	741	742	743	744	745	746	747	748	749	7781	7782	7785	7786	7788	7787	7783	751	752	753	754	755	756	757	758	759	760	761	762	763	764	765	766	767	768	769	770	771	772	773	774	775	776	777	778	779	780	781	782	783	784	785	786	7789	7790	7792	7791	7797	7798	7800	7799	7801	7802	7804	7803	7809	7810	7812	7811	7805	7806	7808	7807	7813	7814	7816	7815	790	791	792	793	794	795	796	797	798	799	800	801	802	803	804	805	806	807	808	809	810	811	812	813	814	815	816	817	818	819	820	821	822	823	7817	7818	7820	7819	7821	7825	7826	7828	7827	7833	7834	7836	7835	7829	7830	7832	7831	826	827	828	829	830	831	832	833	834	835	836	837	838	839	840	841	842	843	844	845	846	847	848	849	850	851	852	853	854	855	856	857	858	859	860	861	7837	7838	7840	7839	7845	7846	7848	7847	7849	7850	7852	7851	7857	7858	7860	7859	7853	7854	7856	7855	7861	7862	7864	7863	865	866	867	868	869	870	871	872	873	874	875	876	877	878	879	880	881	882	883	884	885	886	887	888	889	890	891	892	893	894	895	896	897	7865	7866	7868	7867	7869	7873	7874	7876	7875	7881	7882	7884	7883	7877	7878	7880	7879	7889	7890	7892	7891	7886	7888	7887	901	902	903	904	905	906	907	908	909	910	911	912	913	914	915	916	917	918	919	920	921	922	923	924	925	926	927	928	929	930	931	932	933	934	935	936	7893	7894	7896	7895	7901	7902	7904	7903	7905	7906	7908	7907	7913	7914	7916	7915	7909	7910	7912	7911	7917	7918	7920	7919	940	941	942	943	944	945	946	947	948	949	950	951	952	953	954	955	956	957	958	959	960	961	962	963	964	965	966	967	968	969	970	971	7921	7922	7924	7923	7925	7929	7930	7932	7931	7937	7938	7940	7939	7933	7934	7936	7935	7945	7946	7948	7947	7942	7944	7943	975	976	977	978	979	980	981	982	983	984	985	986	987	988	989	990	991	992	993	994	995	996	997	998	999	1000	1001	1002	1003	1004	1005	1006	1007	1008	1009	1010	1011	7949	7950	7952	7951	7957	7958	7960	7959	7961	7962	7964	7963	7969	7970	7972	7971	7965	7966	7968	7967	7973	7974	7976	7975	1015	1016	1017	1018	1019	1020	1021	1022	1023	1024	1025	1026	1027	1028	1029	1030	1031	1032	1033	1034	1035	1036	1037	1038	1039	1040	1041	1042	1043	1044	1045	7977	7978	7980	7979	7981	7985	7986	7988	7987	7993	7994	7996	7995	7989	7990	7992	7991	8001	8002	8004	8003	7998	8000	7999	1049	1050	1051	1052	1053	1054	1055	1056	1057	1058	1059	1060	1061	1062	1063	1064	1065	1066	1067	1068	1069	1070	1071	1072	1073	1074	1075	1076	1077	1078	1079	1080	1081	1082	1083	1084	1085	1086	8005	8006	8008	8007	8013	8014	8016	8015	8017	8018	8020	8019	8025	8026	8028	8027	8021	8022	8024	8023	8029	8030	8032	8031	1090	1091	1092	1093	1094	1095	1096	1097	1098	1099	1100	1101	1102	1103	1104	1105	1106	1107	1108	1109	1110	1111	1112	1113	1114	1115	1116	1117	1118	1119	8033	8034	8036	8035	8037	8041	8042	8044	8043	8049	8050	8052	8051	8045	8046	8048	8047	8057	8058	8060	8059	8054	8056	8055	1123	1124	1125	1126	1127	1128	1129	1130	1131	1132	1133	1134	1135	1136	1137	1138	1139	1140	1141	1142	1143	1144	1145	1146	1147	1148	1149	1150	1151	1152	1153	1154	1155	1156	1157	1158	1159	1160	1161	8061	8062	8064	8063	8069	8070	8072	8071	8073	8074	8076	8075	8081	8082	8084	8083	8077	8078	8080	8079	8085	8086	8088	8087	1165	1166	1167	1168	1169	1170	1171	1172	1173	1174	1175	1176	1177	1178	1179	1180	1181	1182	1183	1184	1185	1186	1187	1188	1189	1190	1191	1192	1193	8089	8090	8092	8091	8093	8097	8098	8100	8099	8105	8106	8108	8107	8101	8102	8104	8103	8113	8114	8116	8115	8110	8112	8111	1197	1198	1199	1200	1201	1202	1203	1204	1205	1206	1207	1208	1209	1210	1211	1212	1213	1214	1215	1216	1217	1218	1219	1220	1221	1222	1223	1224	1225	1226	1227	1228	1229	1230	1231	1232	1233	1234	1235	1236	8117	8118	8120	8119	8125	8126	8128	8127	8129	8130	8132	8131	8137	8138	8140	8139	8133	8134	8136	8135	8141	8142	8144	8143	1240	1241	1242	1243	1244	1245	1246	1247	1248	1249	1250	1251	1252	1253	1254	1255	1256	1257	1258	1259	1260	1261	1262	1263	1264	1265	1266	1267	8145	8146	8148	8147	8149	8153	8154	8156	8155	8161	8162	8164	8163	8157	8158	8160	8159	8169	8170	8172	8171	8166	8168	8167	1271	1272	1273	1274	1275	1276	1277	1278	1279	1280	1281	1282	1283	1284	1285	1286	1287	1288	1289	1290	1291	1292	1293	1294	1295	1296	1297	1298	1299	1300	1301	1302	1303	1304	1305	1306	1307	1308	1309	1310	1311	8173	8174	8176	8175	8181	8182	8184	8183	8185	8186	8188	8187	8193	8194	8196	8195	8189	8190	8192	8191	8197	8198	8200	8199	1315	1316	8201	8202	8204	8203	1318	1319	1320	1321	1322	1323	1324	1325	1326	1327	1328	1329	1330	1331	1332	1333	1334	1335	1336	1337	1338	1339	1340	1341	8205	8206	8208	8207	8209	8213	8214	8216	8215	8221	8222	8224	8223	8217	8218	8220	8219	8229	8230	8232	8231	8226	8228	8227	1345	1346	1347	1348	1349	1350	1351	1352	1353	1354	1355	1356	1357	1358	1359	1360	1361	1362	1363	1364	1365	1366	1367	1368	1369	1370	1371	1372	1373	1374	1375	1376	1377	1378	1379	1380	1381	1382	1383	1384	1385	1386	8233	8234	8236	8235	8241	8242	8244	8243	8245	8246	8248	8247	8253	8254	8256	8255	8249	8250	8252	8251	8257	8258	8260	8259	1390	8261	8262	8264	8263	8269	8270	8272	8271	8273	8274	8276	8275	8281	8282	8284	8283	8277	8278	8280	8279	8285	8286	8288	8287	1394	1395	1396	1397	1398	1399	1400	1401	1402	1403	1404	1405	1406	1407	1408	1409	1410	1411	1412	1413	1414	1415	1416	8289	8290	8293	8294	8296	8295	8291	8301	8302	8304	8303	8305	8306	8308	8307	8300	8309	8310	8312	8311	8313	8314	8316	8315	1420	1421	1422	1423	1424	1425	1426	1427	1428	1429	1430	1431	1432	1433	1434	1435	1436	1437	1438	1439	1440	1441	1442	1443	1444	1445	1446	1447	1448	1449	1450	1451	1452	1453	1454	1455	1456	1457	1458	1459	1460	1461	8317	8318	8320	8319	8325	8326	8328	8327	8329	8330	8332	8331	8337	8338	8340	8339	8333	8334	8336	8335	8341	8342	8344	8343	1465	8345	8346	8348	8347	8353	8354	8356	8355	8357	8358	8360	8359	8365	8366	8368	8367	8361	8362	8364	8363	8369	8370	8372	8371	1469	1470	1471	1472	1473	1474	1475	1476	1477	1478	1479	1480	1481	1482	1483	1484	1485	1486	1487	1488	1489	1490	8373	8374	8377	8378	8380	8379	8375	8385	8386	8388	8387	8389	8390	8392	8391	8384	8393	8394	8396	8395	8397	8398	8400	8399	1494	1495	1496	1497	1498	1499	1500	1501	1502	1503	1504	1505	1506	1507	1508	1509	1510	1511	1512	1513	1514	1515	1516	1517	1518	1519	1520	1521	1522	1523	1524	1525	1526	1527	1528	1529	1530	1531	1532	1533	1534	1535	1536	8401	8402	8404	8403	8409	8410	8412	8411	8413	8414	8416	8415	8421	8422	8424	8423	8417	8418	8420	8419	8425	8426	8428	8427	1540	8429	8430	8432	8431	8437	8438	8440	8439	8441	8442	8444	8443	8449	8450	8452	8451	8445	8446	8448	8447	8453	8454	8456	8455	1544	1545	1546	1547	1548	1549	1550	1551	1552	1553	1554	1555	1556	1557	1558	1559	1560	1561	1562	1563	1564	8457	8458	8461	8462	8464	8463	8459	8469	8470	8472	8471	8473	8474	8476	8475	8468	8477	8478	8480	8479	8481	8482	8484	8483	1568	1569	1570	1571	1572	1573	1574	1575	1576	1577	1578	1579	1580	1581	1582	1583	1584	1585	1586	1587	1588	1589	1590	1591	1592	1593	1594	1595	1596	1597	1598	1599	1600	1601	1602	1603	1604	1605	1606	1607	1608	1609	1610	1611	8485	8486	8488	8487	8493	8494	8496	8495	8497	8498	8500	8499	8505	8506	8508	8507	8501	8502	8504	8503	8509	8510	8512	8511	1615	8513	8514	8516	8515	8521	8522	8524	8523	8525	8526	8528	8527	8533	8534	8536	8535	8529	8530	8532	8531	8537	8538	8540	8539	1619	1620	1621	1622	1623	1624	1625	1626	1627	1628	1629	1630	1631	1632	1633	1634	1635	1636	1637	1638	8541	8542	8545	8546	8548	8547	8543	8553	8554	8556	8555	8557	8558	8560	8559	8552	8561	8562	8564	8563	8565	8566	8568	8567	1642	1643	1644	1645	1646	1647	1648	1649	1650	1651	1652	1653	1654	1655	1656	1657	1658	1659	1660	1661	1662	1663	1664	1665	1666	1667	1668	1669	1670	1671	1672	1673	1674	1675	1676	1677	1678	1679	1680	1681	1682	1683	1684	1685	1686	8569	8570	8572	8571	8577	8578	8580	8579	8581	8582	8584	8583	8589	8590	8592	8591	8585	8586	8588	8587	8593	8594	8596	8595	1690	8597	8598	8600	8599	8605	8606	8608	8607	8609	8610	8612	8611	8617	8618	8620	8619	8613	8614	8616	8615	8621	8622	8624	8623	1694	1695	1696	1697	1698	1699	1700	1701	1702	1703	1704	1705	1706	1707	1708	1709	1710	1711	1712	8625	8626	8629	8630	8632	8631	8627	8637	8638	8640	8639	8641	8642	8644	8643	8636	8645	8646	8648	8647	8649	8650	8652	8651	1716	1717	1718	1719	1720	1721	1722	1723	1724	1725	1726	1727	1728	1729	1730	1731	1732	1733	1734	1735	1736	1737	1738	1739	1740	1741	1742	1743	1744	1745	1746	1747	1748	1749	1750	1751	1752	1753	1754	1755	1756	1757	1758	1759	1760	1761	8653	8654	8656	8655	8661	8662	8664	8663	8665	8666	8668	8667	8673	8674	8676	8675	8669	8670	8672	8671	8677	8678	8680	8679	1765	8681	8682	8684	8683	8689	8690	8692	8691	8693	8694	8696	8695	8701	8702	8704	8703	8697	8698	8700	8699	8705	8706	8708	8707	1769	1770	1771	1772	1773	1774	1775	1776	1777	1778	1779	1780	1781	1782	1783	1784	1785	1786	8709	8710	8713	8714	8716	8715	8711	8721	8722	8724	8723	8725	8726	8728	8727	8720	8729	8730	8732	8731	8733	8734	8736	8735	1790	1791	1792	1793	1794	1795	1796	1797	1798	1799	1800	1801	1802	1803	1804	1805	1806	1807	1808	1809	1810	1811	1812	1813	1814	1815	1816	1817	1818	1819	1820	1821	1822	1823	1824	1825	1826	1827	1828	1829	1830	1831	1832	1833	1834	1835	1836	8737	8738	8740	8739	8745	8746	8748	8747	8749	8750	8752	8751	8757	8758	8760	8759	8753	8754	8756	8755	8761	8762	8764	8763	1840	8765	8766	8768	8767	8773	8774	8776	8775	8777	8778	8780	8779	8785	8786	8788	8787	8781	8782	8784	8783	8789	8790	8792	8791	1844	1845	1846	1847	1848	1849	1850	1851	1852	1853	1854	1855	1856	1857	1858	1859	1860	8793	8794	8797	8798	8800	8799	8795	8805	8806	8808	8807	8809	8810	8812	8811	8804	8813	8814	8816	8815	8817	8818	8820	8819	1864	1865	1866	1867	1868	1869	1870	1871	1872	1873	1874	1875	1876	1877	1878	1879	1880	1881	1882	1883	1884	1885	1886	1887	1888	1889	1890	1891	1892	1893	1894	1895	1896	1897	1898	1899	1900	1901	1902	1903	1904	1905	1906	1907	1908	1909	1910	1911	8821	8822	8824	8823	8829	8830	8832	8831	8833	8834	8836	8835	8841	8842	8844	8843	8837	8838	8840	8839	8845	8846	8848	8847	1915	8849	8850	8852	8851	8857	8858	8860	8859	8861	8862	8864	8863	8869	8870	8872	8871	8865	8866	8868	8867	8873	8874	8876	8875	1919	1920	1921	1922	1923	1924	1925	1926	1927	1928	1929	1930	1931	1932	1933	1934	8877	8878	8881	8882	8884	8883	8879	8889	8890	8892	8891	8893	8894	8896	8895	8888	8897	8898	8900	8899	8901	8902	8904	8903	1938	1939	1940	1941	1942	1943	1944	1945	1946	1947	1948	1949	1950	1951	1952	1953	1954	1955	1956	1957	1958	1959	1960	1961	1962	1963	1964	1965	1966	1967	1968	1969	1970	1971	1972	1973	1974	1975	1976	1977	1978	1979	1980	1981	1982	1983	1984	1985	1986	8905	8906	8908	8907	8913	8914	8916	8915	8917	8918	8920	8919	8925	8926	8928	8927	8921	8922	8924	8923	8929	8930	8932	8931	1990	8933	8934	8936	8935	8941	8942	8944	8943	8945	8946	8948	8947	8953	8954	8956	8955	8949	8950	8952	8951	8957	8958	8960	8959	1994	1995	1996	1997	1998	1999	2000	2001	2002	2003	2004	2005	2006	2007	2008	8961	8962	8964	8963	8965	8969	8970	8972	8971	8977	8978	8980	8979	8973	8974	8976	8975	8985	8986	8988	8987	8982	8984	8983	2012	2013	2014	2015	2016	2017	2018	2019	2020	2021	2022	2023	2024	2025	2026	2027	2028	2029	2030	2031	2032	2033	2034	2035	2036	2037	2038	2039	2040	2041	2042	2043	2044	2045	2046	2047	2048	2049	2050	2051	2052	2053	2054	2055	2056	2057	2058	2059	2060	2061	8989	8990	8992	8991	8997	8998	9000	8999	9001	9002	9004	9003	9009	9010	9012	9011	9005	9006	9008	9007	9013	9014	9016	9015	2065	2066	9017	9018	9020	9019	2068	2069	2070	2071	2072	2073	2074	2075	2076	2077	2078	2079	2080	2081	2082	9021	9022	9024	9023	9025	9029	9030	9032	9031	9037	9038	9040	9039	9033	9034	9036	9035	9045	9046	9048	9047	9042	9044	9043	2086	2087	2088	2089	2090	2091	2092	2093	2094	2095	2096	2097	2098	2099	2100	2101	2102	2103	2104	2105	2106	2107	2108	2109	2110	2111	2112	2113	2114	2115	2116	2117	2118	2119	2120	2121	2122	2123	2124	2125	2126	2127	2128	2129	2130	2131	2132	2133	2134	2135	2136	9049	9050	9052	9051	9057	9058	9060	9059	9061	9062	9064	9063	9069	9070	9072	9071	9065	9066	9068	9067	9073	9074	9076	9075	2140	2141	2142	2143	2144	2145	2146	2147	2148	2149	2150	2151	2152	2153	2154	2155	2156	9077	9078	9080	9079	9081	9085	9086	9088	9087	9093	9094	9096	9095	9089	9090	9092	9091	9101	9102	9104	9103	9098	9100	9099	2160	2161	2162	2163	2164	2165	2166	2167	2168	2169	2170	2171	2172	2173	2174	2175	2176	2177	2178	2179	2180	2181	2182	2183	2184	2185	2186	2187	2188	2189	2190	2191	2192	2193	2194	2195	2196	2197	2198	2199	2200	2201	2202	2203	2204	2205	2206	2207	2208	2209	2210	2211	9105	9106	9108	9107	9113	9114	9116	9115	9117	9118	9120	9119	9125	9126	9128	9127	9121	9122	9124	9123	9129	9130	9132	9131	2215	2216	2217	2218	2219	2220	2221	2222	2223	2224	2225	2226	2227	2228	2229	2230	9133	9134	9136	9135	9137	9141	9142	9144	9143	9149	9150	9152	9151	9145	9146	9148	9147	9157	9158	9160	9159	9154	9156	9155	2234	2235	2236	2237	2238	2239	2240	2241	2242	2243	2244	2245	2246	2247	2248	2249	2250	2251	2252	2253	2254	2255	2256	2257	2258	2259	2260	2261	2262	2263	2264	2265	2266	2267	2268	2269	2270	2271	2272	2273	2274	2275	2276	2277	2278	2279	2280	2281	2282	2283	2284	2285	2286	9161	9162	9164	9163	9169	9170	9172	9171	9173	9174	9176	9175	9181	9182	9184	9183	9177	9178	9180	9179	9185	9186	9188	9187	2290	2291	2292	2293	2294	2295	2296	2297	2298	2299	2300	2301	2302	2303	2304	9189	9190	9192	9191	9193	9197	9198	9200	9199	9205	9206	9208	9207	9201	9202	9204	9203	9213	9214	9216	9215	9210	9212	9211	2308	2309	2310	2311	2312	2313	2314	2315	2316	2317	2318	2319	2320	2321	2322	2323	2324	2325	2326	2327	2328	2329	2330	2331	2332	2333	2334	2335	2336	2337	2338	2339	2340	2341	2342	2343	2344	2345	2346	2347	2348	2349	2350	2351	2352	2353	2354	2355	2356	2357	2358	2359	2360	2361	9217	9218	9220	9219	9225	9226	9228	9227	9229	9230	9232	9231	9237	9238	9240	9239	9233	9234	9236	9235	9241	9242	9244	9243	2365	2366	2367	2368	2369	2370	2371	2372	2373	2374	2375	2376	2377	2378	9245	9246	9248	9247	9249	9253	9254	9256	9255	9261	9262	9264	9263	9257	9258	9260	9259	9269	9270	9272	9271	9266	9268	9267	2382	2383	2384	2385	2386	2387	2388	2389	2390	2391	2392	2393	2394	2395	2396	2397	2398	2399	2400	2401	2402	2403	2404	2405	2406	2407	2408	2409	2410	2411	2412	2413	2414	2415	2416	2417	2418	2419	2420	2421	2422	2423	2424	2425	2426	2427	2428	2429	2430	2431	2432	2433	2434	2435	2436	9273	9274	9276	9275	9281	9282	9284	9283	9285	9286	9288	9287	9293	9294	9296	9295	9289	9290	9292	9291	9297	9298	9300	9299	2440	2441	2442	2443	2444	2445	2446	2447	2448	2449	2450	2451	2452	9301	9302	9304	9303	9305	9309	9310	9312	9311	9317	9318	9320	9319	9313	9314	9316	9315	9325	9326	9328	9327	9322	9324	9323	2456	2457	2458	2459	2460	2461	2462	2463	2464	2465	2466	2467	2468	2469	2470	2471	2472	2473	2474	2475	2476	2477	2478	2479	2480	2481	2482	2483	2484	2485	2486	2487	2488	2489	2490	2491	2492	2493	2494	2495	2496	2497	2498	2499	2500	2501	2502	2503	2504	2505	2506	2507	2508	2509	2510	2511	9329	9330	9332	9331	9337	9338	9340	9339	9341	9342	9344	9343	9349	9350	9352	9351	9345	9346	9348	9347	9353	9354	9356	9355	2515	2516	2517	2518	2519	2520	2521	2522	2523	2524	2525	2526	9357	9358	9360	9359	9361	9365	9366	9368	9367	9373	9374	9376	9375	9369	9370	9372	9371	9381	9382	9384	9383	9378	9380	9379	2530	2531	2532	2533	2534	2535	2536	2537	2538	2539	2540	2541	2542	2543	2544	2545	2546	2547	2548	2549	2550	2551	2552	2553	2554	2555	2556	2557	2558	2559	2560	2561	2562	2563	2564	2565	2566	2567	2568	2569	2570	2571	2572	2573	2574	2575	2576	2577	2578	2579	2580	2581	2582	2583	2584	2585	2586	9385	9386	9388	9387	9393	9394	9396	9395	9397	9398	9400	9399	9405	9406	9408	9407	9401	9402	9404	9403	9409	9410	9412	9411	2590	2591	2592	2593	2594	2595	2596	2597	2598	2599	2600	2601	9413	9414	9417	9418	9420	9419	9415	9425	9426	9428	9427	9429	9430	9432	9431	9424	9433	9434	9436	9435	9437	9438	9440	9439	2605	2606	2607	2608	2609	2610	2611	2612	2613	2614	2615	2616	2617	2618	2619	2620	2621	2622	2623	2624	2625	2626	2627	2628	2629	2630	2631	2632	2633	2634	2635	2636	2637	2638	2639	2640	2641	2642	2643	2644	2645	2646	2647	2648	2649	2650	2651	2652	2653	2654	2655	2656	2657	2658	2659	2660	2661	9441	9442	9444	9443	9449	9450	9452	9451	9453	9454	9456	9455	9461	9462	9464	9463	9457	9458	9460	9459	9465	9466	9468	9467	2665	2666	2667	2668	2669	2670	2671	2672	2673	2674	2675	9469	9470	9473	9474	9476	9475	9471	9481	9482	9484	9483	9485	9486	9488	9487	9480	9489	9490	9492	9491	9493	9494	9496	9495	2679	2680	2681	2682	2683	2684	2685	2686	2687	2688	2689	2690	2691	2692	2693	2694	2695	2696	2697	2698